ITEM: UNITS
real
ITEM: TIMESTEP
1
ITEM: NUMBER OF ATOMS
10
ITEM: BOX BOUNDS pp pp pp
0.000000000000e+00 5.000000000000e+00
0.000000000000e+00 5.000000000000e+00
0.000000000000e+00 5.000000000000e+00
ITEM: ATOMS id xu yu zu type element mass q
1 3.6284 4.58178 4.41271 1 0 0 0
2 0.114054 4.8764 0.58675 1 1 0 0
3 1.62166 2.42113 2.51364 1 2 0 0
4 1.47947 3.47999 2.05768 1 3 0 0
5 3.57715 2.72309 3.36973 1 4 0 0
6 3.07487 2.76479 1.98516 1 5 0 0
7 0.807279 4.17324 1.43865 1 6 0 0
8 3.85162 1.68002 4.68132 1 7 0 0
9 0.171932 1.9528 4.00808 1 8 0 0
10 0.162211 4.64599 4.06361 1 9 0 0
ITEM: UNITS
real
ITEM: TIMESTEP
2
ITEM: NUMBER OF ATOMS
10
ITEM: BOX BOUNDS pp pp pp
0.000000000000e+00 5.000000000000e+00
0.000000000000e+00 5.000000000000e+00
0.000000000000e+00 5.000000000000e+00
ITEM: ATOMS id xu yu zu type element mass q
1 3.62837 4.58184 4.41269 1 0 0 0
2 0.114055 4.87636 0.586738 1 1 0 0
3 1.62168 2.42111 2.51359 1 2 0 0
4 1.47947 3.48003 2.05763 1 3 0 0
5 3.57714 2.72314 3.36972 1 4 0 0
6 3.07492 2.76476 1.98517 1 5 0 0
7 0.807284 4.17321 1.43865 1 6 0 0
8 3.85161 1.68001 4.68132 1 7 0 0
9 0.171956 1.95279 4.00807 1 8 0 0
10 0.162214 4.64598 4.06359 1 9 0 0
ITEM: UNITS
real
ITEM: TIMESTEP
3
ITEM: NUMBER OF ATOMS
10
ITEM: BOX BOUNDS pp pp pp
0.000000000000e+00 5.000000000000e+00
0.000000000000e+00 5.000000000000e+00
0.000000000000e+00 5.000000000000e+00
ITEM: ATOMS id xu yu zu type element mass q
1 3.62832 4.58188 4.41265 1 0 0 0
2 0.114044 4.87639 0.586753 1 1 0 0
3 1.62166 2.42111 2.51356 1 2 0 0
4 1.47945 3.48007 2.0576 1 3 0 0
5 3.5771 2.72315 3.36969 1 4 0 0
6 3.07496 2.76468 1.98512 1 5 0 0
7 0.807263 4.17321 1.43868 1 6 0 0
8 3.85159 1.67998 4.68131 1 7 0 0
9 0.171932 1.95278 4.00806 1 8 0 0
10 0.16222 4.64597 4.06359 1 9 0 0
ITEM: UNITS
real
ITEM: TIMESTEP
4
ITEM: NUMBER OF ATOMS
10
ITEM: BOX BOUNDS pp pp pp
0.000000000000e+00 5.000000000000e+00
0.000000000000e+00 5.000000000000e+00
0.000000000000e+00 5.000000000000e+00
ITEM: ATOMS id xu yu zu type element mass q
1 3.62828 4.5819 4.4126 1 0 0 0
2 0.114016 4.87632 0.586776 1 1 0 0
3 1.62165 2.42109 2.51347 1 2 0 0
4 1.47938 3.48012 2.05766 1 3 0 0
5 3.57707 2.72315 3.36966 1 4 0 0
6 3.07507 2.76464 1.98513 1 5 0 0
7 0.807266 4.17322 1.43872 1 6 0 0
8 3.85161 1.67994 4.68131 1 7 0 0
9 0.171841 1.95275 4.00801 1 8 0 0
10 0.162302 4.64598 4.06359 1 9 0 0
ITEM: UNITS
real
ITEM: TIMESTEP
5
ITEM: NUMBER OF ATOMS
10
ITEM: BOX BOUNDS pp pp pp
0.000000000000e+00 5.000000000000e+00
0.000000000000e+00 5.000000000000e+00
0.000000000000e+00 5.000000000000e+00
ITEM: ATOMS id xu yu zu type element mass q
1 3.62829 4.58192 4.41256 1 0 0 0
2 0.113966 4.87625 0.586793 1 1 0 0
3 1.6216 2.42115 2.51343 1 2 0 0
4 1.47936 3.48018 2.05777 1 3 0 0
5 3.57696 2.7231 3.36958 1 4 0 0
6 3.07518 2.76457 1.98516 1 5 0 0
7 0.807281 4.17322 1.43873 1 6 0 0
8 3.85165 1.67987 4.68131 1 7 0 0
9 0.171739 1.95275 4.0079 1 8 0 0
10 0.162382 4.64598 4.06363 1 9 0 0
ITEM: UNITS
real
ITEM: TIMESTEP
6
ITEM: NUMBER OF ATOMS
10
ITEM: BOX BOUNDS pp pp pp
0.000000000000e+00 5.000000000000e+00
0.000000000000e+00 5.000000000000e+00
0.000000000000e+00 5.000000000000e+00
ITEM: ATOMS id xu yu zu type element mass q
1 3.62834 4.58192 4.41251 1 0 0 0
2 0.113932 4.87615 0.586804 1 1 0 0
3 1.62154 2.42119 2.51338 1 2 0 0
4 1.47935 3.48026 2.05787 1 3 0 0
5 3.57687 2.72306 3.36953 1 4 0 0
6 3.07529 2.76446 1.98522 1 5 0 0
7 0.807261 4.17326 1.43881 1 6 0 0
8 3.85166 1.67979 4.68132 1 7 0 0
9 0.171636 1.95273 4.00778 1 8 0 0
10 0.162478 4.64596 4.06369 1 9 0 0
ITEM: UNITS
real
ITEM: TIMESTEP
7
ITEM: NUMBER OF ATOMS
10
ITEM: BOX BOUNDS pp pp pp
0.000000000000e+00 5.000000000000e+00
0.000000000000e+00 5.000000000000e+00
0.000000000000e+00 5.000000000000e+00
ITEM: ATOMS id xu yu zu type element mass q
1 3.62839 4.58193 4.41243 1 0 0 0
2 0.113826 4.87606 0.586828 1 1 0 0
3 1.62147 2.42124 2.51326 1 2 0 0
4 1.4794 3.48031 2.05801 1 3 0 0
5 3.57678 2.72296 3.36949 1 4 0 0
6 3.07539 2.76437 1.98525 1 5 0 0
7 0.807269 4.17327 1.43894 1 6 0 0
8 3.85168 1.67972 4.68127 1 7 0 0
9 0.171507 1.95268 4.00772 1 8 0 0
10 0.162635 4.64605 4.0638 1 9 0 0
ITEM: UNITS
real
ITEM: TIMESTEP
8
ITEM: NUMBER OF ATOMS
10
ITEM: BOX BOUNDS pp pp pp
0.000000000000e+00 5.000000000000e+00
0.000000000000e+00 5.000000000000e+00
0.000000000000e+00 5.000000000000e+00
ITEM: ATOMS id xu yu zu type element mass q
1 3.62846 4.58193 4.41236 1 0 0 0
2 0.113685 4.87596 0.58687 1 1 0 0
3 1.62141 2.42128 2.51316 1 2 0 0
4 1.47944 3.48034 2.05808 1 3 0 0
5 3.57669 2.72288 3.36943 1 4 0 0
6 3.07551 2.76429 1.98528 1 5 0 0
7 0.807261 4.17332 1.43907 1 6 0 0
8 3.85168 1.67958 4.68117 1 7 0 0
9 0.171399 1.95268 4.00764 1 8 0 0
10 0.162809 4.64614 4.06389 1 9 0 0
ITEM: UNITS
real
ITEM: TIMESTEP
9
ITEM: NUMBER OF ATOMS
10
ITEM: BOX BOUNDS pp pp pp
0.000000000000e+00 5.000000000000e+00
0.000000000000e+00 5.000000000000e+00
0.000000000000e+00 5.000000000000e+00
ITEM: ATOMS id xu yu zu type element mass q
1 3.62859 4.58186 4.41232 1 0 0 0
2 0.113508 4.87593 0.586882 1 1 0 0
3 1.62136 2.42127 2.5131 1 2 0 0
4 1.47951 3.48041 2.05814 1 3 0 0
5 3.57656 2.72279 3.36937 1 4 0 0
6 3.07562 2.76423 1.9853 1 5 0 0
7 0.807228 4.17339 1.43917 1 6 0 0
8 3.85171 1.67947 4.68103 1 7 0 0
9 0.171309 1.95266 4.00755 1 8 0 0
10 0.162977 4.64621 4.06397 1 9 0 0
ITEM: UNITS
real
ITEM: TIMESTEP
10
ITEM: NUMBER OF ATOMS
10
ITEM: BOX BOUNDS pp pp pp
0.000000000000e+00 5.000000000000e+00
0.000000000000e+00 5.000000000000e+00
0.000000000000e+00 5.000000000000e+00
ITEM: ATOMS id xu yu zu type element mass q
1 3.62875 4.58179 4.41228 1 0 0 0
2 0.113355 4.87592 0.58689 1 1 0 0
3 1.6213 2.42125 2.5131 1 2 0 0
4 1.47957 3.48046 2.05817 1 3 0 0
5 3.5764 2.72272 3.36929 1 4 0 0
6 3.07574 2.76416 1.98534 1 5 0 0
7 0.807219 4.17345 1.43929 1 6 0 0
8 3.85175 1.67944 4.68094 1 7 0 0
9 0.171249 1.95265 4.00746 1 8 0 0
10 0.163165 4.64629 4.06401 1 9 0 0
