LAMMPS data file -- atom_style full -- generated by chemfiles
30 atoms
20 bonds
10 angles
0 dihedrals
0 impropers
2 atom types
1 bond types
1 angle types
0 dihedral types
0 improper types
0.00000000 10.0000000 xlo xhi
0.00000000 10.0000000 ylo yhi
0.00000000 10.0000000 zlo zhi

# Pair Coeffs
# 1 tip3p-H
# 2 tip3p-O

# Bond Coeffs
# 1 tip3p-H-tip3p-O

# Angle Coeffs
# 1 tip3p-H-tip3p-O-tip3p-H

Masses

1 0.0 # tip3p-H
2 0.0 # tip3p-O

Atoms # full

1 1 2 0.0 1.880383126785457 24.660132862361298 27.112264760638052 # tip3p-O
2 1 1 0.0 1.7803831267854573 25.409132862361297 27.69926476063805 # tip3p-H
3 1 1 0.0 2.425383126785457 24.043132862361297 27.600264760638055 # tip3p-H
4 2 2 0.0 8.084723644714709 19.225297607997277 18.39444422722278 # tip3p-O
5 2 1 0.0 7.984723644714709 19.97429760799728 18.98144422722278 # tip3p-H
6 2 1 0.0 8.629723644714709 18.608297607997276 18.882444227222784 # tip3p-H
7 3 2 0.0 2.183642242328201 20.063034390160016 22.08575008534577 # tip3p-O
8 3 1 0.0 2.0836422423282013 20.812034390160015 22.67275008534577 # tip3p-H
9 3 1 0.0 2.728642242328201 19.446034390160015 22.57375008534577 # tip3p-H
10 4 2 0.0 -1.1007242378776816 19.19946445878468 27.494614998298516 # tip3p-O
11 4 1 0.0 -1.2007242378776812 19.948464458784677 28.08161499829852 # tip3p-H
12 4 1 0.0 -0.5557242378776817 18.582464458784678 27.98261499829852 # tip3p-H
13 5 2 0.0 -0.3240427658756939 27.02214424694536 20.22544553570056 # tip3p-O
14 5 1 0.0 -0.42404276587569356 27.771144246945358 20.81244553570056 # tip3p-H
15 5 1 0.0 0.220957234124306 26.405144246945355 20.713445535700558 # tip3p-H
16 6 2 0.0 6.49344379397441 18.726210776501134 22.10738779750908 # tip3p-O
17 6 1 0.0 6.39344379397441 19.475210776501136 22.69438779750908 # tip3p-H
18 6 1 0.0 7.03844379397441 18.109210776501136 22.595387797509083 # tip3p-H
19 7 2 0.0 5.252881094626153 23.131127788023417 27.23880328854537 # tip3p-O
20 7 1 0.0 5.152881094626153 23.880127788023415 27.825803288545373 # tip3p-H
21 7 1 0.0 5.7978810946261525 22.514127788023416 27.72680328854537 # tip3p-H
22 8 2 0.0 7.007167235004361 20.651755853063698 21.050104884257497 # tip3p-O
23 8 1 0.0 6.907167235004361 21.4007558530637 21.6371048842575 # tip3p-H
24 8 1 0.0 7.552167235004361 20.034755853063697 21.5381048842575 # tip3p-H
25 9 2 0.0 2.0961488851874615 23.521224457381166 17.549900642107886 # tip3p-O
26 9 1 0.0 1.9961488851874618 24.27022445738117 18.13690064210789 # tip3p-H
27 9 1 0.0 2.6411488851874614 22.904224457381165 18.03790064210789 # tip3p-H
28 10 2 0.0 -1.5583533877623008 20.50258015519305 21.017407237321834 # tip3p-O
29 10 1 0.0 -1.6583533877623005 21.251580155193054 21.604407237321837 # tip3p-H
30 10 1 0.0 -1.0133533877623009 19.885580155193054 21.505407237321837 # tip3p-H

Bonds

1 1 1 2
2 1 1 3
3 1 4 5
4 1 4 6
5 1 7 8
6 1 7 9
7 1 10 11
8 1 10 12
9 1 13 14
10 1 13 15
11 1 16 17
12 1 16 18
13 1 19 20
14 1 19 21
15 1 22 23
16 1 22 24
17 1 25 26
18 1 25 27
19 1 28 29
20 1 28 30

Angles

1 1 2 1 3
2 1 5 4 6
3 1 8 7 9
4 1 11 10 12
5 1 14 13 15
6 1 17 16 18
7 1 20 19 21
8 1 23 22 24
9 1 26 25 27
10 1 29 28 30
