short test for io
 
          7  atoms
          6  bonds
          5  angles
           4  dihedrals
           0  impropers
 
           5  atom types
           1  bond types
           0  angle types
           0  dihedral types
           0  improper types
 
0  50 xlo xhi
0  50 ylo yhi
0  50 zlo zhi
 
Masses
 
 1  1
 2  1
 3  1
 4  1
 5  1
 
Atoms
 
  1    1    1   -11.80  24.88  24.95  25.15
  2    1    1   -11.80  25.03  25.02  25.25
  3    1    3   -11.80  25.03  25.02  25.05
  4    1    3   -11.80  25.10  25.20  25.01
  5    1    4   -11.80  25.15  25.39  24.97
  6    1    4   -11.80  25.16  25.43  25.16
  7    1    4   -11.80  25.09  25.25  25.22

Bonds
 
    1   1   1   2
    2   1   2   3
    3   1   3   4
    4   1   4   5
    5   1   5   6
    6   1   6   7

Angles

    1   1   1   2   3
    2   1   2   3   4
    3   1   3   4   5
    4   1   4   5   6
    5   1   5   6   7

Dihedrals

    1   1   1   2   3   4
    2   1   2   3   4   5
    3   1   3   4   5   6
    4   1   4   5   6   7