ITEM: TIMESTEP
0
ITEM: NUMBER OF ATOMS
7
ITEM: BOX BOUNDS pp pp pp
0.0000000000000000e+00 5.0000000000000000e+01
0.0000000000000000e+00 5.0000000000000000e+01
0.0000000000000000e+00 5.0000000000000000e+01
ITEM: ATOMS id type q x y z 
1 1 -11.8 6.10971 2.56818 8.68378 
2 1 -11.8 12.6989 3.57623 9.37899 
3 3 11.8 11.7015 3.1166 8.64338 
4 3 11.8 12.6039 2.77508 8.73872 
5 4 11.8 9.84103 3.5769 8.4039 
6 4 11.8 8.96431 3.97964 8.32708 
7 4 11.8 10.7671 3.29394 8.50227
ITEM: TIMESTEP
100
ITEM: NUMBER OF ATOMS
7
ITEM: BOX BOUNDS pp pp pp
0.0000000000000000e+00 5.0000000000000000e+01
0.0000000000000000e+00 5.0000000000000000e+01
0.0000000000000000e+00 5.0000000000000000e+01
ITEM: ATOMS id type q x y z 
1 1 11.8 6.10971 2.56818 8.68378 
4 3 11.8 12.6039 2.77508 8.73872 
2 1 11.8 12.6989 3.57623 9.37899 
3 3 11.8 11.7015 3.1166 8.64338 
5 4 11.8 9.84103 3.5769 8.4039 
6 4 11.8 8.96431 3.97964 8.32708 
7 4 11.8 10.7671 3.29394 8.50227
ITEM: TIMESTEP
200
ITEM: NUMBER OF ATOMS
7
ITEM: BOX BOUNDS pp pp pp
0.0000000000000000e+00 5.0000000000000000e+01
0.0000000000000000e+00 5.0000000000000000e+01
0.0000000000000000e+00 5.0000000000000000e+01
ITEM: ATOMS id type q x y z 
7 4 11.8 10.7671 3.29394 8.50227 
1 1 -11.8 6.10971 2.56818 8.68378 
6 4 11.8 8.96431 3.97964 8.32708 
2 1 -11.8 12.6989 3.57623 9.37899 
3 3 11.8 11.7015 3.1166 8.64338 
4 3 11.8 12.6039 2.77508 8.73872 
5 4 11.8 9.84103 3.5769 8.4039 