# LAMMPS data file written by molpy on 2025-12-10 18:20:48

38 atoms
37 bonds
17 angles
20 dihedrals

7 atom types
5 bond types
6 angle types
6 dihedral types

0.000000 30.000000 xlo xhi
0.000000 30.000000 ylo yhi
0.000000 30.000000 zlo zhi

Atom Type Labels

1 opls_140
2 opls_154
3 opls_155
4 opls_157
5 opls_180
6 opls_182
7 opls_185

Bond Type Labels

1 CT-CT
2 CT-HC
3 CT-OH
4 CT-OS
5 HO-OH

Angle Type Labels

1 CT-CT-OS
2 CT-OH-HO
3 CT-OS-CT
4 HC-CT-HC
5 HC-CT-OH
6 HC-CT-OS

Dihedral Type Labels

1 CT-CT-OS-CT
2 CT-OS-CT-HC
3 HC-CT-CT-OS
4 HC-CT-OH-HO
5 OH-CT-CT-OS
6 OS-CT-CT-OS

Masses

1 1.007947
2 15.999430
3 1.007947
4 12.010780
5 15.999430
6 12.010780
7 1.007947

Atoms

1 1 2 -0.683000 0.817549 0.578685 2.216671
2 1 4 0.145000 1.434344 0.312153 0.986032
3 1 6 0.140000 0.386954 0.161972 -0.117877
4 1 3 0.418000 0.610495 1.549549 2.227820
5 1 1 0.060000 2.001772 -0.638350 1.073745
6 1 1 0.060000 2.159323 1.116594 0.724259
7 1 7 0.060000 0.882451 -0.139579 -1.068547
8 1 7 0.060000 -0.328942 -0.639982 0.161486
9 1 5 -0.400000 -0.694106 1.990872 -0.390794
10 1 6 0.145000 -1.401761 3.188058 -0.569443
11 1 7 0.060000 -1.009450 3.983986 0.104230
12 1 7 0.060000 -3.267578 2.172466 -0.997127
13 1 6 0.140000 -2.894898 2.971094 -0.321122
14 1 7 0.060000 -1.258291 3.530480 -1.616003
15 1 7 0.060000 -3.455106 3.904658 -0.555316
16 1 5 -0.400000 -3.247984 2.381529 1.707620
17 1 6 0.145000 -3.479112 1.995603 3.035621
18 1 7 0.060000 -5.101198 0.661603 2.501867
19 1 6 0.140000 -4.157310 0.626048 3.086239
20 1 7 0.060000 -4.147732 2.744652 3.509960
21 1 7 0.060000 -2.526958 1.977125 3.613813
22 1 7 0.060000 -4.417721 0.373517 4.139157
23 1 5 -0.400000 -2.883821 -0.881543 2.253508
24 1 6 0.145000 -2.050203 -1.868403 1.708407
25 1 7 0.060000 -1.070490 -1.434523 1.403190
26 1 7 0.060000 -2.094882 -3.384256 0.149518
27 1 7 0.060000 -3.702589 -2.965416 0.835598
29 1 6 0.140000 -2.726789 -2.543022 0.514541
30 1 7 0.060000 -1.852282 -2.633888 2.488141
32 1 5 -0.400000 -3.067744 -1.131831 -1.060368
33 1 4 0.145000 -4.783335 -0.108838 -2.409222
34 1 7 0.060000 -2.886081 0.793679 -1.819579
35 1 1 0.060000 -5.170535 -1.115836 -2.673251
36 1 3 0.418000 -5.314545 1.349548 -1.252566
38 1 6 0.145000 -3.290931 -0.208075 -2.091294
39 1 2 -0.683000 -5.495242 0.374531 -1.302393
40 1 7 0.060000 -2.753179 -0.554778 -2.998897
41 1 1 0.060000 -4.937531 0.556862 -3.288591

Bonds

1 3 1 2
2 1 2 3
3 5 1 4
4 2 2 5
5 2 2 6
6 2 3 7
7 2 3 8
8 4 9 10
9 1 10 13
10 2 10 14
11 2 10 11
12 2 13 15
13 2 13 12
14 4 3 9
15 4 16 17
16 1 17 19
17 2 17 20
18 2 17 21
19 2 19 22
20 2 19 18
21 4 13 16
22 4 23 24
23 1 24 29
24 2 24 30
25 2 24 25
26 2 29 26
27 2 29 27
28 4 19 23
29 4 32 38
30 1 38 33
31 3 33 39
32 2 38 40
33 2 38 34
34 2 33 41
35 2 33 35
36 5 39 36
37 4 29 32

Angles

1 1 2 3 9
2 6 7 3 9
3 6 8 3 9
4 1 10 13 16
5 6 15 13 16
6 6 12 13 16
7 1 17 19 23
8 6 22 19 23
9 6 18 19 23
10 2 33 39 36
11 5 39 33 41
12 5 39 33 35
13 4 41 33 35
14 1 24 29 32
15 6 26 29 32
16 6 27 29 32
17 3 29 32 38

Dihedrals

1 5 1 2 3 9
2 3 5 2 3 9
3 3 6 2 3 9
4 6 9 10 13 16
5 3 14 10 13 16
6 3 11 10 13 16
7 6 16 17 19 23
8 3 20 17 19 23
9 3 21 17 19 23
10 4 41 33 39 36
11 4 35 33 39 36
12 1 24 29 32 38
13 2 26 29 32 38
14 2 27 29 32 38
15 1 29 32 38 33
16 2 29 32 38 40
17 2 29 32 38 34
18 6 23 24 29 32
19 3 30 24 29 32
20 3 25 24 29 32
