# LAMMPS data file written by molpy on 2026-01-01 00:00:00

20 atoms
19 bonds
6 angles
15 dihedrals

2 atom types
2 bond types
2 angle types
3 dihedral types

0.000000 20.000000 xlo xhi
0.000000 20.000000 ylo yhi
0.000000 20.000000 zlo zhi

Atom Type Labels

1 c3
2 hc

Bond Type Labels

1 c3-c3
2 c3-hc

Angle Type Labels

1 c3-c3-c3
2 c3-c3-hc

Dihedral Type Labels

1 c3-c3-c3-c3
2 c3-c3-c3-hc
3 hc-c3-c3-hc

Masses

1 12.010780
2 1.007947

Atoms

1 1 1 0.000000 0.000000 0.000000 0.000000
2 1 1 0.000000 1.540000 0.000000 0.000000
3 1 1 0.000000 3.080000 0.000000 0.000000
4 1 2 0.000000 -0.500000 0.900000 0.000000
5 1 2 0.000000 -0.500000 -0.450000 0.780000
6 1 2 0.000000 -0.500000 -0.450000 -0.780000
7 1 2 0.000000 1.540000 0.900000 0.450000
8 1 2 0.000000 1.540000 0.900000 -0.450000
9 1 2 0.000000 9.580000 -0.450000 -0.780000
10 1 2 0.000000 3.580000 -0.450000 0.780000
11 1 2 0.000000 3.580000 -0.450000 -0.780000
12 1 1 0.000000 6.000000 0.000000 0.000000
13 1 1 0.000000 7.540000 0.000000 0.000000
14 1 1 0.000000 9.080000 0.000000 0.000000
15 1 2 0.000000 9.580000 -0.450000 0.780000
16 1 2 0.000000 5.500000 -0.450000 0.780000
17 1 2 0.000000 5.500000 -0.450000 -0.780000
18 1 2 0.000000 7.540000 0.900000 0.450000
19 1 2 0.000000 7.540000 0.900000 -0.450000
20 1 2 0.000000 9.580000 0.900000 0.000000

Bonds

1 1 1 2
2 1 2 3
3 2 1 4
4 2 1 5
5 2 1 6
6 2 2 7
7 2 2 8
8 2 3 10
9 2 3 11
10 1 12 13
11 1 13 14
12 2 12 16
13 2 12 17
14 2 13 18
15 2 13 19
16 2 14 20
17 2 14 15
18 2 14 9
19 1 3 12

Angles

1 1 2 3 12
2 2 10 3 12
3 2 11 3 12
4 1 3 12 13
5 2 3 12 16
6 2 3 12 17

Dihedrals

1 1 2 3 12 13
2 2 2 3 12 16
3 2 2 3 12 17
4 2 10 3 12 13
5 3 10 3 12 16
6 3 10 3 12 17
7 2 11 3 12 13
8 3 11 3 12 16
9 3 11 3 12 17
10 1 3 12 13 14
11 2 3 12 13 18
12 2 3 12 13 19
13 1 1 2 3 12
14 2 7 2 3 12
15 2 8 2 3 12
